ITEM: TIMESTEP
0
ITEM: NUMBER OF ATOMS
864
ITEM: BOX BOUNDS pp pp pp
0 12.9266
0 12.9266
0 12.9266
ITEM: ATOMS type x y z 
1 4.26003 0.391066 8.81466 
1 4.65133 7.11588 0.16538 
1 11.1794 12.7744 1.38498 
1 0.595692 7.18259 4.91486 
1 0.605441 0.829709 12.0657 
1 4.48106 9.15054 1.25282 
1 1.59645 7.76426 12.5058 
1 6.40121 12.3104 9.45036 
1 6.52775 4.84084 11.1528 
1 9.76047 5.50622 10.548 
1 2.87494 11.0592 2.72434 
1 6.085 10.1243 0.615149 
1 12.3121 3.32523 3.38247 
1 12.429 11.4143 9.95539 
1 12.5429 9.62829 11.1766 
1 7.9147 4.88379 5.36063 
1 10.8383 6.13721 4.37666 
1 1.02151 4.17384 10.7553 
1 5.77494 3.02889 1.99798 
1 6.66515 3.38008 12.8325 
1 11.9635 9.57287 7.86061 
1 9.93318 5.62407 6.84473 
1 5.37631 5.19111 4.75991 
1 1.07164 12.8081 8.6627 
1 7.82461 6.14633 10.2593 
1 3.09162 10.4021 5.24907 
1 1.78304 2.93836 5.93951 
1 6.13611 6.16316 2.06772 
1 2.26634 2.00748 4.31247 
1 7.19517 4.4705 6.30103 
1 11.7048 6.10615 9.96691 
1 3.47789 4.49959 10.1044 
1 10.2588 5.64184 12.5508 
1 11.9824 4.76819 0.910763 
1 0.30867 1.0661 7.7302 
1 0.704566 9.33141 9.83432 
1 9.78973 7.67746 4.11335 
1 2.46101 11.1515 8.24753 
1 8.3224 10.5839 10.4987 
1 4.13823 12.4157 4.42525 
1 7.1426 8.15114 3.42984 
1 4.73873 0.827591 12.2404 
1 2.88653 4.6127 5.458 
1 1.53873 3.84984 0.0208146 
1 4.84476 10.8971 4.84623 
1 7.61168 1.95409 7.40537 
1 8.7171 2.05613 5.86818 
1 10.0128 6.24126 2.02649 
1 0.367004 1.76825 2.3231 
1 3.56773 11.4933 12.1052 
1 7.6461 8.36008 0.149934 
1 12.8586 7.05111 0.933163 
1 5.93058 0.379004 5.94399 
1 10.0944 5.40047 0.895789 
1 7.59407 8.1605 9.41374 
1 5.27807 4.12338 0.231897 
1 6.64973 5.5412 9.9811 
1 8.94978 10.9943 11.9995 
1 1.13179 1.53108 0.600504 
1 12.2106 0.963918 12.0616 
1 7.13819 9.45887 0.738953 
1 8.24861 2.13433 8.6603 
1 1.57692 5.08504 3.58271 
1 2.10301 7.39168 7.54907 
1 12.2151 10.1243 12.2515 
1 9.0103 6.06416 9.91673 
1 2.93399 9.44372 12.1561 
1 4.47009 6.86373 6.56171 
1 5.49212 5.67958 12.6753 
1 5.81158 7.81287 8.43157 
1 12.0163 10.6007 7.40675 
1 11.4501 6.56213 5.23405 
1 6.56431 12.756 11.6847 
1 4.21751 5.85321 7.28813 
1 3.01686 7.04878 9.58508 
1 11.494 5.48279 2.34059 
1 11.5572 12.8252 9.75682 
1 2.62739 0.544681 7.7804 
1 5.89207 11.0006 10.7381 
1 6.19845 4.27888 4.34337 
1 5.72317 1.99287 7.73624 
1 3.49612 0.966791 1.07618 
1 1.26828 3.08021 2.59357 
1 4.95864 1.36577 0.219379 
1 0.356982 2.31751 3.16736 
1 7.93006 4.9856 10.4694 
1 3.76717 8.31701 1.98485 
1 10.9306 10.0627 11.394 
1 4.02163 6.83699 12.2399 
1 1.07728 6.27084 11.8674 
1 0.493571 5.9456 0.46381 
1 7.95 9.36619 1.74346 
1 9.29846 10.7165 9.1988 
1 11.4447 1.12813 11.0265 
1 0.74882 7.38866 7.43279 
1 0.123041 0.2546 5.39289 
1 2.62152 2.37206 2.51121 
1 10.8694 7.72631 9.56786 
1 12.5943 9.41411 1.50803 
1 6.16276 3.08423 6.07088 
1 11.4771 4.11661 2.75745 
1 9.21791 2.7895 3.32039 
1 0.837118 5.80957 9.62753 
1 10.9181 9.48374 7.5657 
1 6.73028 8.7495 9.64736 
1 9.94687 6.62341 4.35906 
1 10.6083 9.58578 2.75417 
1 9.35718 6.0689 5.78188 
1 11.6633 3.80283 4.76087 
1 1.87459 12.2172 0.350664 
1 6.80901 7.29417 5.43 
1 4.35466 3.61635 6.55678 
1 10.0307 9.14548 1.82092 
1 6.03205 8.16875 2.5248 
1 4.78717 3.5974 10.0828 
1 5.90712 12.2815 7.30304 
1 3.95316 11.7468 5.65092 
1 0.642697 1.22306 5.54864 
1 5.77372 6.13935 11.1035 
1 1.30429 11.8441 5.82776 
1 4.80017 6.0537 8.75297 
1 1.15054 3.28538 11.2925 
1 4.97133 1.22454 6.85991 
1 4.59411 3.24821 0.548036 
1 7.02946 5.50031 5.16326 
1 3.36197 10.4413 6.95441 
1 1.51625 12.0453 8.18239 
1 11.6469 1.1105 4.81841 
1 10.5108 4.50356 11.9122 
1 8.11021 5.9157 3.08598 
1 5.26192 6.08088 7.42935 
1 12.863 2.76946 10.5795 
1 1.16059 8.11142 9.59845 
1 0.410999 8.64068 3.4692 
1 8.76021 6.46689 8.58636 
1 3.92202 10.9984 4.29513 
1 7.9143 2.89771 7.40971 
1 0.168418 6.51822 9.3288 
1 12.2158 10.6951 2.04281 
1 6.19161 0.578428 7.54652 
1 2.18649 8.89976 0.892432 
1 2.80009 4.06415 11.6497 
1 1.83205 4.85436 6.93847 
1 0.0667 4.18829 8.95568 
1 7.64991 4.73097 2.37613 
1 0.292922 3.5991 2.51952 
1 2.12481 12.8251 12.1661 
1 7.48395 2.20033 9.52809 
1 12.7146 2.54958 6.29497 
1 6.35918 3.41645 3.53709 
1 2.45155 12.6344 7.11826 
1 12.3582 2.82826 2.20567 
1 2.28158 7.74809 11.5896 
1 4.91587 11.3716 1.6998 
1 3.6589 7.62097 0.146358 
1 2.49842 3.66897 6.23697 
1 3.6324 4.64671 3.57719 
1 5.28383 10.692 12.7587 
1 3.21948 1.75545 3.35242 
1 2.99843 9.94537 1.82925 
1 2.04176 7.2459 8.6995 
1 7.12116 2.12626 8.65016 
1 7.7024 0.014624 10.5447 
1 5.94092 2.72115 11.8573 
1 9.27072 1.82406 11.7673 
1 2.33 1.09089 0.46016 
1 2.67844 4.07028 7.23779 
1 0.752695 11.0915 8.91203 
1 3.27713 12.5275 11.5143 
1 7.06727 10.5681 10.396 
1 10.645 9.14278 8.86951 
1 10.0775 0.871558 7.91702 
1 1.38619 6.63474 7.82686 
1 7.52468 10.2891 0.00691342 
1 4.033 12.3193 9.56907 
1 7.76706 1.94535 2.85851 
1 1.14628 10.4711 2.78619 
1 5.58487 5.89315 5.69802 
1 10.3537 9.95381 9.82353 
1 4.46384 8.52894 2.87057 
1 10.1203 0.951763 6.24833 
1 7.58566 11.1864 0.619545 
1 4.28003 10.3184 9.90852 
1 9.53651 9.51987 9.37002 
1 10.827 7.73856 5.09211 
1 8.68506 3.44897 5.55224 
1 8.27507 3.0464 12.3674 
1 6.05561 11.6225 4.24453 
1 2.14814 8.94353 7.08305 
1 11.2725 2.0811 10.4347 
1 5.65154 4.72479 5.79276 
1 10.9709 8.58336 2.68929 
1 10.3347 6.48346 10.4677 
1 12.5338 1.15676 3.63774 
1 8.71092 7.97732 11.8458 
1 4.38235 5.02276 4.86181 
1 11.0625 5.15786 8.79236 
1 1.00549 8.41922 4.59955 
1 5.677 0.0250422 8.96313 
1 5.85442 11.1037 2.50918 
1 5.10301 11.8771 4.65467 
1 9.23107 0.901142 1.74548 
1 2.27279 5.5308 9.71745 
1 9.47395 6.50093 6.71544 
1 12.376 6.66531 10.8736 
1 4.4876 12.8921 0.248587 
1 4.58514 0.25483 11.4151 
1 10.6599 0.485338 4.82245 
1 10.3617 10.076 1.53299 
1 4.18129 11.1141 7.15781 
1 12.8731 10.4673 9.48666 
1 0.68134 7.23682 12.1971 
1 8.80673 1.04829 10.9088 
1 10.4588 4.08765 2.50682 
1 6.22319 3.9443 0.978997 
1 7.48395 12.3201 3.26194 
1 4.19615 2.26895 6.34842 
1 5.71332 8.70208 11.5938 
1 7.87227 3.77531 7.92674 
1 2.53327 9.08362 2.96392 
1 2.60532 6.08737 5.41681 
1 0.15348 10.543 4.74152 
1 8.04887 9.38569 12.5774 
1 5.3215 7.92718 3.54074 
1 0.528416 11.9167 0.610571 
1 11.2798 0.799616 8.97707 
1 11.9426 6.89913 11.8071 
1 8.11446 3.36609 8.98488 
1 1.71542 10.7915 3.62298 
1 1.8179 7.5843 2.29603 
1 11.1801 11.074 8.33499 
1 9.94238 11.2719 6.76742 
1 11.0012 1.63659 5.60901 
1 4.0892 7.25137 8.83021 
1 7.77645 5.27198 11.9709 
1 3.08551 3.54395 4.95088 
1 7.94189 0.0141669 6.14352 
1 5.51081 0.898027 10.1825 
1 0.563449 8.78167 0.237975 
1 6.44018 3.88075 5.49492 
1 4.57458 0.969491 3.45094 
1 7.67725 1.12495 8.49031 
1 1.69327 6.5967 5.68888 
1 3.67079 6.94292 10.6162 
1 6.21877 2.29903 9.61244 
1 0.878547 2.58858 8.02924 
1 5.13271 0.607455 1.00403 
1 10.8737 4.09521 3.60531 
1 3.23139 1.8516 10.217 
1 2.59602 2.75709 1.43804 
1 12.8626 9.60467 0.463973 
1 2.71493 12.3244 8.28408 
1 8.834 7.46799 0.0555807 
1 2.19576 8.6131 12.7158 
1 7.4546 5.73934 9.04472 
1 3.37242 1.6618 6.32379 
1 2.95915 12.6486 2.11511 
1 8.32513 11.5796 12.7743 
1 0.792102 7.40238 3.53622 
1 12.5021 10.5773 0.778142 
1 7.26332 12.2632 6.18838 
1 1.78466 2.75213 7.29612 
1 2.08686 5.8801 7.33493 
1 5.25265 2.36647 12.6636 
1 11.8454 3.94261 0.130743 
1 12.5552 1.6608 4.74546 
1 8.9119 5.33714 6.85617 
1 7.6052 5.71242 5.90348 
1 1.76956 2.66586 10.3638 
1 6.7022 11.0573 11.509 
1 12.8424 2.60993 7.52367 
1 3.0916 3.17384 10.8157 
1 2.65954 6.50992 12.9128 
1 6.4971 2.28006 12.8763 
1 10.804 4.42809 6.31199 
1 10.8697 1.76892 9.05982 
1 3.04421 5.7144 7.91 
1 2.67672 10.9177 1.67821 
1 10.4442 5.98962 9.37396 
1 11.1912 2.72133 3.34923 
1 12.9117 8.30688 4.75341 
1 5.38757 9.76696 9.47418 
1 6.58613 12.3993 0.405172 
1 10.7055 3.9995 5.26321 
1 3.86676 3.36354 3.91899 
1 11.2416 1.03877 1.64176 
1 12.2648 9.95372 3.41591 
1 9.22865 0.134367 5.46273 
1 11.7497 5.38839 12.8893 
1 3.88235 8.41536 6.66096 
1 0.700347 5.86295 5.56786 
1 0.51207 1.33333 3.4791 
1 9.75079 7.73092 0.981757 
1 12.5076 0.00909026 6.2879 
1 3.80251 10.4578 3.1856 
1 12.1677 12.0249 1.31528 
1 7.09525 4.84202 0.909027 
1 12.7305 12.7321 11.9374 
1 6.75884 7.66263 10.5827 
1 9.44094 7.07972 5.27357 
1 9.34292 12.0813 12.3555 
1 2.01554 5.36009 8.76358 
1 3.38727 12.6124 0.339812 
1 9.38189 8.70844 6.78292 
1 1.91118 2.96558 4.81603 
1 1.20273 8.17584 10.7054 
1 6.05728 0.315221 0.960119 
1 0.438682 10.1639 2.05149 
1 11.5115 7.84651 2.09414 
1 9.48724 4.82987 5.97404 
1 5.23979 9.68551 0.436956 
1 6.74429 1.30159 9.01835 
1 11.1535 10.029 6.10634 
1 0.986418 4.09874 1.4703 
1 4.55229 8.10702 0.478715 
1 7.56765 0.106843 4.98845 
1 9.87349 3.61844 5.82294 
1 11.4663 10.8438 3.20553 
1 11.0004 2.52646 11.4563 
1 2.03378 12.3266 10.9172 
1 2.85705 5.07826 4.0856 
1 3.68691 6.23216 8.49439 
1 10.2094 2.81531 2.68975 
1 8.72928 8.1176 2.30452 
1 8.50257 12.1546 5.70316 
1 10.1774 12.8368 6.89024 
1 1.49624 8.76473 11.5327 
1 9.56308 6.36921 7.82494 
1 0.144762 5.62287 3.34021 
1 7.03914 1.00066 4.0268 
1 1.88745 12.5855 2.45284 
1 7.68471 6.7584 5.71366 
1 9.50245 2.41602 1.89939 
1 9.75647 7.55944 7.55188 
1 10.3999 1.24354 10.2416 
1 4.24442 4.34939 1.01914 
1 4.99443 1.2177 8.21682 
1 2.28808 9.86975 5.95887 
1 8.08768 7.8707 5.22214 
1 0.748289 2.08817 9.21284 
1 9.2534 1.14034 5.53027 
1 8.54264 11.5484 3.71568 
1 12.3213 8.16845 5.86872 
1 3.41818 6.56 0.882427 
1 11.1608 8.17664 11.8479 
1 11.4369 11.7353 4.24911 
1 4.76456 1.93289 11.723 
1 1.2205 6.55681 8.90733 
1 11.4838 11.0008 11.8408 
1 6.92214 1.1613 5.65523 
1 1.2673 0.202717 7.64902 
1 5.57774 3.26409 7.78741 
1 6.54831 2.06636 4.88117 
1 12.6159 8.25672 1.64483 
1 11.3248 8.78708 6.79892 
1 6.33052 9.59354 12.3756 
1 7.86526 0.0377096 7.31904 
1 3.01449 11.71 0.801569 
1 6.0219 12.1164 10.6399 
1 9.65315 2.60843 8.44305 
1 9.05987 3.85766 2.01659 
1 4.53795 2.32059 7.48265 
1 12.0229 7.65804 7.18809 
1 0.614191 2.93018 1.79861 
1 7.55813 3.35137 3.81675 
1 7.54362 4.07816 11.266 
1 10.0472 2.19483 3.92611 
1 9.53289 8.09977 9.18957 
1 11.1618 0.445876 12.0185 
1 6.08753 11.3904 6.90188 
1 10.2365 12.1871 0.662069 
1 2.51298 11.8588 11.7608 
1 3.70873 0.785707 2.19844 
1 8.77455 3.57171 2.82131 
1 3.67415 8.42603 4.57588 
1 10.4646 12.2522 8.24244 
1 10.388 6.14622 5.26749 
1 6.25147 8.82985 0.0404221 
1 4.05784 4.89411 2.18971 
1 5.12012 10.8371 8.73967 
1 4.61887 6.30215 4.42456 
1 9.33117 11.3654 5.21457 
1 3.73824 5.89406 9.48564 
1 8.32388 9.74123 6.42697 
1 3.07074 3.58587 3.30827 
1 4.84456 0.27982 6.01151 
1 1.94492 9.15461 4.95287 
1 10.0469 6.53493 3.39688 
1 7.47314 6.72169 2.49275 
1 6.74321 1.38079 11.901 
1 6.95876 8.44849 1.06504 
1 5.95032 1.47864 6.86167 
1 4.62146 7.08948 7.60003 
1 10.0911 8.73151 5.00732 
1 11.6896 0.093073 4.56877 
1 7.00432 3.16579 9.51506 
1 11.1435 0.174232 7.55396 
1 7.40735 12.8037 12.3519 
1 5.76613 10.8566 7.81831 
1 7.43027 11.9406 4.20333 
1 9.01391 11.5724 2.23193 
1 4.34591 9.55398 4.39433 
1 1.86509 10.0627 8.31092 
1 5.32415 6.79365 1.08181 
1 7.10432 6.84655 9.58585 
1 12.5966 12.8387 9.59667 
1 4.3308 3.38852 7.61511 
1 2.19267 7.36839 6.44335 
1 1.52016 0.65305 6.00414 
1 11.9927 2.20653 9.0801 
1 6.25486 6.08852 8.62413 
1 2.45094 1.39708 10.6304 
1 0.701146 10.9004 0.181765 
1 5.95199 0.993501 3.59041 
1 4.82862 10.9994 2.71046 
1 10.3499 0.632145 0.054955 
1 0.229883 7.36637 8.42456 
1 5.4156 12.0455 2.25333 
1 8.67787 4.59607 3.57635 
1 12.4874 0.890818 6.64695 
1 7.11607 3.49195 6.17823 
1 10.3065 5.09847 5.02279 
1 6.60748 7.26526 1.1502 
1 0.842462 3.38251 5.59301 
1 1.59678 6.95755 11.0756 
1 4.56151 4.52461 5.80111 
1 10.8855 8.44812 8.18467 
1 9.26445 5.1847 7.94406 
1 12.5649 11.5481 5.49407 
1 11.3089 12.1252 0.536422 
1 4.2477 4.48444 12.7919 
1 7.34898 9.37123 10.6154 
1 7.13052 1.26797 2.05142 
1 7.62477 5.91045 1.78567 
1 10.4615 12.3412 12.0973 
1 2.55337 2.37146 10.9693 
1 1.26902 10.7374 7.42746 
1 0.923189 9.77336 8.94551 
1 11.1133 5.90569 11.4489 
1 2.89262 12.1407 9.52781 
1 10.9912 2.18593 4.60554 
1 4.01001 9.09274 7.45578 
1 6.03126 8.87724 3.78605 
1 12.2795 7.66056 10.1657 
1 12.5611 5.17651 4.9376 
1 0.416461 1.02484 9.27417 
1 9.74933 9.80961 8.19291 
1 1.59805 11.3196 1.0727 
1 12.469 8.7412 0.82102 
1 2.97843 6.25871 6.74914 
1 4.99089 8.08395 12.3943 
1 11.2285 4.98748 7.55095 
1 1.43934 10.5318 9.2388 
1 4.29957 9.81452 8.45947 
1 7.62406 4.61401 9.53528 
1 8.60941 2.365 6.94951 
1 5.11036 9.57605 11.7075 
1 5.68838 6.88556 9.44107 
1 11.7951 12.6731 10.8965 
1 0.0869704 1.80671 6.91124 
1 6.29479 5.04953 9.12862 
1 5.74875 9.26998 2.25905 
1 8.47406 4.20549 6.91604 
1 6.05334 2.10138 3.8487 
1 11.8279 8.05289 5.03948 
1 9.82952 2.08492 7.67221 
1 10.3578 10.3823 8.58502 
1 0.642342 2.12851 4.2644 
1 7.65764 12.6091 1.38091 
1 8.46903 12.4939 2.6995 
1 8.31656 5.38436 4.28387 
1 5.69785 2.06092 10.86 
1 2.36929 11.0132 7.21395 
1 6.56349 4.24278 10.3233 
1 1.95112 11.0006 11.8663 
1 0.885407 11.301 3.99413 
1 7.14882 11.9133 11.1195 
1 7.24851 10.5003 9.11958 
1 4.67083 6.47926 5.67968 
1 7.6637 8.32118 7.17186 
1 4.71496 8.68599 4.1309 
1 8.20829 12.7838 3.64786 
1 4.66928 4.28564 7.76196 
1 4.50813 12.0812 6.44081 
1 6.53307 2.31391 2.20487 
1 0.266149 5.91206 7.40664 
1 3.34403 6.39137 3.6972 
1 6.63654 0.672255 10.7608 
1 3.5976 6.80372 2.82316 
1 0.563039 11.0594 5.63809 
1 9.16111 2.38917 10.5067 
1 8.20916 2.16501 11.2871 
1 11.2083 6.66264 2.56392 
1 9.69029 0.314612 4.35826 
1 1.42626 8.87663 5.91391 
1 3.80533 1.88211 2.00182 
1 5.93872 9.10238 8.3311 
1 6.11697 8.43219 1.51892 
1 1.92954 0.67567 8.75624 
1 12.3325 7.27563 12.8298 
1 1.60724 12.8662 5.14969 
1 0.813803 12.5791 12.6415 
1 3.06283 0.176183 4.44111 
1 5.39794 4.22711 12.2622 
1 9.5269 2.60432 6.69993 
1 5.64577 1.97102 0.735055 
1 1.84748 5.5236 12.1621 
1 6.85304 8.92896 2.10394 
1 1.64047 3.35649 9.63331 
1 8.46915 7.99058 0.695526 
1 6.45391 4.05641 9.32168 
1 11.2955 4.96183 4.1941 
1 9.83335 11.8799 4.39575 
1 10.1124 2.13892 5.2286 
1 6.81671 10.9278 4.4211 
1 12.5933 8.52825 6.89406 
1 9.49479 3.62508 8.3205 
1 1.31812 4.35331 2.78615 
1 9.89241 8.40756 8.28786 
1 6.91971 3.62413 4.72931 
1 6.50123 6.63132 3.80092 
1 7.44887 4.83466 3.77147 
1 0.235252 12.2492 4.84184 
1 2.4134 6.3828 4.47467 
1 12.44 11.0321 2.99833 
1 7.78974 2.42339 1.77212 
1 8.33288 8.72909 8.81526 
1 3.73326 9.09503 3.51883 
1 8.89438 12.7379 6.81164 
1 2.98284 4.72921 0.0723416 
1 5.84654 3.25976 10.4871 
1 2.88001 0.374809 6.01133 
1 7.10155 0.295919 8.77166 
1 7.39697 9.43463 9.27648 
1 4.07031 0.178565 5.0686 
1 4.38104 10.2122 12.8452 
1 9.12468 6.4292 12.5654 
1 6.17056 6.56535 10.2204 
1 6.95932 2.43443 6.09348 
1 11.8195 3.45656 1.01425 
1 6.91714 0.994887 1.039 
1 7.35276 4.55927 8.64166 
1 11.8142 6.99395 3.98174 
1 0.463424 10.6794 8.03144 
1 9.32402 4.89857 12.6629 
1 5.69494 3.3214 4.23928 
1 9.03164 9.50243 5.36628 
1 4.68371 5.23336 9.57434 
1 5.19905 2.61645 9.86313 
1 11.5036 7.27081 10.3486 
1 2.92487 9.49385 4.66424 
1 11.7299 0.502194 0.358359 
1 8.49493 9.92271 11.9068 
1 4.27827 7.13639 1.67147 
1 0.794735 11.6327 7.06101 
1 0.346401 7.79129 6.30248 
1 0.665393 0.823608 6.66543 
1 11.2763 12.0414 7.52605 
1 9.62458 2.70086 0.0811234 
1 10.0576 9.75687 3.96265 
1 8.93818 0.942087 12.7104 
1 6.15413 11.5668 8.86381 
1 6.01302 11.0319 9.68321 
1 10.5541 6.50663 6.88513 
1 4.19482 2.34172 12.5452 
1 12.3105 3.88242 1.87366 
1 3.66225 12.4283 6.76357 
1 2.17976 10.9242 10.1657 
1 11.4628 1.19253 3.55672 
1 10.3003 0.325909 11.2193 
1 6.29239 11.0838 0.275814 
1 3.9191 9.21172 2.31528 
1 3.94716 4.4401 8.76948 
1 2.11666 5.89689 3.26902 
1 0.334351 4.73329 2.47082 
1 0.165905 4.02959 7.88912 
1 10.3738 4.83786 10.7616 
1 11.5031 12.6196 8.44779 
1 1.3625 9.2557 7.87692 
1 4.96772 5.06806 3.00971 
1 10.7641 12.2792 4.6733 
1 10.154 8.19897 3.38819 
1 5.76387 5.15302 10.3132 
1 8.95059 1.20221 6.88739 
1 0.375146 7.56953 10.2455 
1 3.76798 8.51919 9.339 
1 2.46196 9.17943 11.1521 
1 5.28836 1.37993 4.66971 
1 10.3952 9.10088 6.12841 
1 9.73242 0.791119 3.40108 
1 8.28538 2.80015 9.91254 
1 0.872623 9.78768 11.4379 
1 12.3453 1.10351 5.59213 
1 10.2473 7.91271 11.264 
1 10.7175 3.99892 0.311858 
1 8.78142 3.0346 7.93864 
1 7.04279 6.11035 11.8659 
1 4.15758 2.57324 4.77748 
1 12.3859 5.79024 9.14193 
1 11.9684 2.05339 5.81342 
1 10.3095 4.41083 9.66986 
1 5.63206 1.08417 11.3978 
1 6.98693 4.90875 12.499 
1 9.21102 9.6898 6.97821 
1 0.533709 3.59665 4.30667 
1 10.2745 0.212676 1.02675 
1 2.70898 12.353 5.69491 
1 6.47797 4.61783 3.12141 
1 3.13495 1.19547 5.25438 
1 0.787963 12.3425 3.58608 
1 7.08939 6.73728 10.8414 
1 11.295 9.87819 0.752158 
1 3.53419 11.1429 9.77772 
1 7.04181 8.51965 8.49874 
1 8.49381 1.139 9.46285 
1 1.02413 4.75191 7.84045 
1 6.88506 10.9817 2.40841 
1 6.28447 7.49181 4.38722 
1 0.405386 9.18381 7.0943 
1 7.05097 1.41771 0.107053 
1 8.66653 8.4741 5.76181 
1 1.52231 6.76932 3.00503 
1 4.54708 1.40659 1.37979 
1 11.1046 0.884412 6.42304 
1 10.2243 7.24643 2.51897 
1 1.26946 8.2484 7.09666 
1 5.67442 0.432639 12.8724 
1 10.3008 2.39551 10.3588 
1 3.77981 2.1276 11.0896 
1 2.08694 8.38482 1.80811 
1 5.00846 11.7258 0.689185 
1 4.41453 2.91853 11.6123 
1 11.9223 9.079 12.089 
1 10.8557 3.25074 4.38341 
1 6.26007 3.66529 6.89387 
1 3.61362 5.95122 2.31195 
1 12.4335 9.63013 4.55941 
1 11.3369 7.77647 0.785046 
1 8.08727 4.68045 0.495787 
1 5.42431 3.88367 6.38084 
1 8.67257 10.7995 5.80868 
1 3.22325 1.31239 8.0733 
1 1.44775 6.19016 4.2307 
1 0.182713 9.53923 2.96524 
1 4.85657 12.1589 8.11978 
1 5.89981 6.43147 4.70809 
1 10.9326 9.08557 10.5674 
1 1.47926 11.5009 2.37922 
1 2.90259 7.38129 1.7621 
1 1.94257 5.17641 5.49968 
1 1.51961 4.19595 6.2236 
1 4.23442 1.20689 9.97381 
1 6.70145 10.0877 8.32083 
1 4.98765 7.46943 4.52528 
1 9.77889 9.71262 10.5897 
1 2.44843 9.95603 6.96844 
1 4.82949 8.75732 6.41383 
1 9.80405 4.15567 0.790251 
1 9.47065 10.2196 4.65546 
1 8.31248 6.15872 4.91987 
1 6.90654 11.9522 12.4303 
1 8.57565 4.92974 11.6241 
1 2.86321 6.73549 11.525 
1 8.76923 4.84257 1.37512 
1 5.9737 9.21651 6.80358 
1 0.339598 9.66241 5.54417 
1 6.74299 2.0254 1.0671 
1 12.5786 8.7628 2.64755 
1 8.76329 8.55264 12.7936 
1 0.0531516 8.71559 8.37995 
1 2.67262 12.1963 3.14633 
1 0.315486 8.09015 11.2602 
1 11.9742 11.6855 12.3424 
1 12.5455 11.4316 0.192722 
1 10.1534 6.49904 0.821606 
1 5.51717 2.38785 6.87747 
1 3.88251 9.3267 11.2608 
1 0.177066 5.08227 0.144187 
1 11.1632 1.55318 11.9548 
1 12.1452 5.10137 3.15999 
1 9.56143 5.70335 4.27275 
1 2.13786 2.1322 9.23958 
1 12.4975 12.3894 3.91712 
1 10.7224 9.18798 0.314145 
1 1.94045 1.30738 2.45008 
1 10.1551 8.1624 5.84408 
1 0.890659 10.1806 1.12479 
1 12.0889 4.40933 9.60926 
1 2.05985 6.61424 12.0829 
1 0.877394 4.6521 12.4543 
1 0.891866 5.38434 6.63528 
1 12.1186 12.2916 2.96489 
1 7.75571 3.89194 5.33457 
1 6.63837 12.5457 5.27564 
1 5.36661 2.86651 5.14111 
1 11.8919 2.98269 7.19427 
1 11.384 8.921 5.51907 
1 11.1608 3.91052 8.80742 
1 2.14115 12.2018 1.54625 
1 9.48736 8.80678 10.86 
1 1.3322 11.7488 12.33 
1 4.74904 8.20607 1.54817 
1 0.597655 10.4956 6.58699 
1 0.49177 4.58179 3.45617 
1 3.33948 1.12054 11.5736 
1 0.0802422 5.71908 1.31279 
1 11.38 4.5674 11.3263 
1 8.42864 6.44461 6.1069 
1 11.5301 4.95528 5.63774 
1 4.62162 9.96972 6.75935 
1 0.73 9.25864 1.89489 
1 12.27 11.1731 4.14842 
1 1.92637 11.7905 9.44369 
1 8.5733 6.99513 1.22705 
1 9.92171 3.64044 4.49729 
1 5.88928 6.89091 5.72748 
1 5.365 4.08652 8.89057 
1 2.48579 0.520972 3.41806 
1 1.83485 1.59693 7.32044 
1 4.52124 3.59994 4.74309 
1 0.114515 5.07663 8.07169 
1 4.81875 6.31261 9.87643 
1 10.8942 10.852 1.02816 
1 9.90933 9.08214 11.8807 
1 1.29167 0.23725 10.4811 
1 7.06786 1.39054 6.65359 
1 12.9261 1.50556 0.90913 
1 9.30356 7.55049 6.55398 
1 7.48129 11.4712 7.16742 
1 6.57516 0.0149984 4.11769 
1 7.75241 1.57793 11.9625 
1 11.8421 1.97295 2.89626 
1 1.58922 12.2461 7.06386 
1 5.75685 5.97078 3.31497 
1 4.07945 12.7296 2.92616 
1 8.14863 0.22151 0.719813 
1 0.280383 0.743124 2.23263 
1 3.07926 3.25386 0.292485 
1 0.813563 3.69543 8.55967 
1 12.4459 6.05783 2.5114 
1 12.2775 10.6069 10.7344 
1 12.5218 5.51039 10.1995 
1 0.0949404 0.270024 3.17405 
1 7.41584 2.19859 4.10376 
1 7.93737 1.72387 4.86482 
1 3.54741 0.905301 9.4334 
1 6.73829 2.90926 10.5559 
1 3.43012 5.84383 11.3928 
1 3.84656 8.77892 0.0715624 
1 9.80204 8.19022 2.07629 
1 0.0397147 4.15622 5.27673 
1 8.38539 8.91332 11.5998 
1 2.98301 4.82344 2.04213 
1 10.1092 8.14435 12.5357 
1 1.12933 6.53959 1.38227 
1 1.01877 1.68501 10.4654 
1 5.26453 7.67743 7.12424 
1 9.83685 6.86532 8.99752 
1 8.42699 9.34956 9.86983 
1 11.7648 10.6458 12.8963 
1 11.6302 10.3107 4.23428 
1 1.25092 10.3858 4.94349 
1 7.40498 9.79678 2.83142 
1 11.8609 7.98999 8.72236 
1 9.29237 1.48742 4.36733 
1 8.96322 5.68313 0.514051 
1 10.11 10.1519 12.0795 
1 7.12803 2.382 11.747 
1 8.00019 8.9985 3.14305 
1 3.65835 2.71155 1.25443 
1 1.72609 9.67685 9.8549 
1 8.54933 10.144 3.84693 
1 11.3466 5.79132 3.44433 
1 1.42601 0.52535 0.233558 
1 5.78548 11.6702 11.7857 
1 3.84554 3.34417 12.4175 
1 8.51712 11.3771 7.99072 
1 1.4117 9.73074 6.56632 
1 9.71185 3.54377 9.65659 
1 11.9415 6.67522 8.47528 
1 12.401 7.31872 5.04148 
1 4.62954 0.214448 7.32783 
1 8.52583 7.60147 3.30766 
1 2.88056 2.39506 5.5911 
1 9.23794 12.4424 9.81015 
1 11.8313 2.9823 6.11963 
1 8.0987 0.744216 2.83724 
1 2.23286 3.72051 10.341 
1 5.91263 10.3927 1.75334 
1 4.57932 11.2621 9.87434 
1 9.28641 12.648 1.88928 
1 8.76739 9.65184 2.49569 
1 8.32017 0.136731 11.73 
1 1.99539 4.4502 8.0419 
1 8.54708 4.12132 4.56731 
1 4.72699 11.8996 11.667 
1 11.0759 5.69406 6.28057 
1 3.60503 4.26679 6.72555 
1 0.586406 12.1276 8.08498 
1 10.9919 11.8155 3.27089 
1 8.5157 12.5274 4.6866 
1 12.4738 4.73288 11.2739 
1 0.489358 8.27633 2.24941 
1 11.931 8.51645 10.7861 
1 11.2428 6.72129 1.50952 
1 5.01969 7.07185 2.91088 
1 7.40514 2.22308 10.6018 
1 10.8172 4.9598 3.04353 
1 5.18387 12.1831 9.8052 
1 11.8272 9.34695 9.03257 
1 6.29487 0.456072 9.59206 
1 9.26867 4.69615 8.84281 
1 11.4207 1.347 7.34662 
1 4.01843 12.0965 10.8719 
1 10.1615 10.8805 10.7156 
1 3.66326 8.35157 12.0068 
1 7.81513 2.87611 5.44047 
1 9.01033 6.24138 2.95095 
1 6.23644 4.90224 6.6725 
1 4.08429 8.93936 5.30111 
1 12.9177 3.55175 6.11727 
1 10.4747 1.40311 4.46509 
1 9.68426 4.09057 11.4055 
1 3.11615 2.77199 4.0507 
1 2.65057 7.98571 5.15457 
1 2.99702 0.1318 8.77389 
1 7.28318 11.2326 3.51861 
1 3.00969 3.13325 7.9626 
1 8.83126 12.7129 8.25216 
1 5.73424 2.74888 2.94019 
1 9.32075 10.3462 2.92721 
1 10.7661 0.222495 2.55847 
1 6.35575 7.46971 3.23506 
1 1.58054 3.02872 3.72539 
1 6.83295 8.63687 11.919 
1 2.44089 0.199564 1.31705 
1 5.48359 12.1535 3.24102 
1 10.0642 11.4033 9.13182 
1 4.1742 2.52082 3.01119 
1 0.982629 9.58981 3.7928 
1 3.15249 11.841 10.4372 
1 3.62235 5.28792 0.73254 
1 9.85779 0.339952 9.48201 
1 12.3907 12.076 9.04356 
1 12.0764 3.99596 8.22017 
1 6.68387 3.10384 8.5384 
1 12.4599 8.53262 9.60626 
1 8.4879 12.06 1.24575 
1 10.007 11.1964 0.152969 
1 0.171181 0.0264493 7.18539 
1 9.2017 7.15643 9.86854 
1 2.95013 3.91648 1.12092 
1 3.84151 10.8261 11.2483 
1 3.56315 5.9757 5.8389 
1 5.37871 10.6029 11.5947 
1 0.521522 4.49811 6.3631 
1 3.09458 1.45113 12.615 
1 3.38441 8.35031 10.7237 
1 10.4974 7.01618 0.0628775 
1 5.67515 4.50428 7.84578 
1 11.1024 10.3971 2.27634 
1 9.60896 12.1838 2.70186 
1 5.33174 1.91692 8.95434 
1 1.83988 1.69693 5.20178 
